MODEL 1
REMARK VINA RESULT:      -4.8      0.000      0.000
REMARK  6 active torsions:
REMARK  status: ('A' for Active; 'I' for Inactive)
REMARK    1  A    between atoms: O2_2  and  C20_20 
REMARK    2  A    between atoms: O3_3  and  C21_21 
REMARK    3  A    between atoms: N4_4  and  C16_16 
REMARK    4  A    between atoms: C5_5  and  C6_6 
REMARK    5  A    between atoms: C6_6  and  C7_7 
REMARK    6  A    between atoms: C16_16  and  C19_19 
ROOT
HETATM    1  O1          0       4.652  68.926  67.000  1.00  0.00    -0.292 OA
HETATM    2  C7          0       4.746  66.490  66.774  1.00  0.00     0.065 A 
HETATM    3  C12         0       3.620  65.523  66.339  1.00  0.00     0.052 A 
HETATM    4  C13         0       4.098  67.863  66.784  1.00  0.00     0.164 A 
HETATM    5  C14         0       2.404  66.391  66.257  1.00  0.00    -0.041 A 
HETATM    6  C15         0       2.677  67.731  66.501  1.00  0.00     0.019 A 
HETATM    7  C17         0       1.109  65.997  65.959  1.00  0.00     0.047 A 
HETATM    8  C18         0       1.709  68.716  66.463  1.00  0.00     0.055 A 
HETATM    9  C20         0       0.107  66.971  65.917  1.00  0.00     0.102 A 
HETATM   10  C21         0       0.404  68.321  66.166  1.00  0.00     0.102 A 
ENDROOT
BRANCH   2  11
HETATM   11  C6          0       5.940  66.452  65.839  1.00  0.00     0.017 C 
BRANCH  11  12
HETATM   12  C5          0       5.559  66.895  64.430  1.00  0.00    -0.010 C 
HETATM   13  C8          0       4.422  66.034  63.870  1.00  0.00     0.035 C 
HETATM   14  C10         0       3.967  66.537  62.498  1.00  0.00     0.273 C 
HETATM   15  N4          0       3.565  67.948  62.557  1.00  0.00     0.092 N 
HETATM   16  C11         0       4.671  68.797  63.018  1.00  0.00     0.273 C 
HETATM   17  C9          0       5.149  68.372  64.409  1.00  0.00     0.035 C 
BRANCH  15  18
HETATM   18  C16         0       3.084  68.399  61.251  1.00  0.00     0.311 C 
BRANCH  18  19
HETATM   19  C19         0       1.638  68.816  61.297  1.00  0.00    -0.030 A 
HETATM   20  C22         0       1.097  69.524  60.234  1.00  0.00     0.009 A 
HETATM   21  C24         0      -0.243  69.910  60.277  1.00  0.00     0.001 A 
HETATM   22  C26         0      -1.027  69.585  61.384  1.00  0.00     0.000 A 
HETATM   23  C25         0      -0.473  68.873  62.447  1.00  0.00     0.001 A 
HETATM   24  C23         0       0.867  68.487  62.404  1.00  0.00     0.009 A 
ENDBRANCH  18  19
ENDBRANCH  15  18
ENDBRANCH  11  12
ENDBRANCH   2  11
BRANCH  10  25
HETATM   25  O3          0      -0.582  69.262  66.118  1.00  0.00    -0.353 OA
HETATM   26  C28         0      -0.494  70.339  67.048  1.00  0.00     0.210 C 
ENDBRANCH  10  25
BRANCH   9  27
HETATM   27  O2          0      -1.172  66.595  65.625  1.00  0.00    -0.353 OA
HETATM   28  C27         0      -2.117  66.633  66.692  1.00  0.00     0.210 C 
ENDBRANCH   9  27
TORSDOF 6
ENDMDL
MODEL 2
REMARK VINA RESULT:      -3.8      2.349      5.234
REMARK  6 active torsions:
REMARK  status: ('A' for Active; 'I' for Inactive)
REMARK    1  A    between atoms: O2_2  and  C20_20 
REMARK    2  A    between atoms: O3_3  and  C21_21 
REMARK    3  A    between atoms: N4_4  and  C16_16 
REMARK    4  A    between atoms: C5_5  and  C6_6 
REMARK    5  A    between atoms: C6_6  and  C7_7 
REMARK    6  A    between atoms: C16_16  and  C19_19 
ROOT
HETATM    1  O1          0       2.984  65.196  64.861  1.00  0.00    -0.292 OA
HETATM    2  C7          0       5.321  65.906  65.032  1.00  0.00     0.065 A 
HETATM    3  C12         0       6.036  67.046  64.270  1.00  0.00     0.052 A 
HETATM    4  C13         0       3.906  65.896  64.481  1.00  0.00     0.164 A 
HETATM    5  C14         0       5.024  67.508  63.270  1.00  0.00    -0.041 A 
HETATM    6  C15         0       3.802  66.859  63.396  1.00  0.00     0.019 A 
HETATM    7  C17         0       5.186  68.483  62.298  1.00  0.00     0.047 A 
HETATM    8  C18         0       2.715  67.135  62.588  1.00  0.00     0.055 A 
HETATM    9  C20         0       4.105  68.782  61.464  1.00  0.00     0.102 A 
HETATM   10  C21         0       2.878  68.114  61.608  1.00  0.00     0.102 A 
ENDROOT
BRANCH   2  11
HETATM   11  C6          0       5.324  66.117  66.534  1.00  0.00     0.017 C 
BRANCH  11  12
HETATM   12  C5          0       4.150  66.983  66.978  1.00  0.00    -0.010 C 
HETATM   13  C8          0       4.177  68.348  66.280  1.00  0.00     0.035 C 
HETATM   14  C10         0       2.946  69.182  66.645  1.00  0.00     0.273 C 
HETATM   15  N4          0       1.706  68.465  66.326  1.00  0.00     0.092 N 
HETATM   16  C11         0       1.630  67.189  67.049  1.00  0.00     0.273 C 
HETATM   17  C9          0       2.814  66.285  66.699  1.00  0.00     0.035 C 
BRANCH  15  18
HETATM   18  C16         0       0.541  69.296  66.631  1.00  0.00     0.311 C 
BRANCH  18  19
HETATM   19  C19         0      -0.751  68.548  66.429  1.00  0.00    -0.030 A 
HETATM   20  C22         0      -1.741  69.099  65.629  1.00  0.00     0.009 A 
HETATM   21  C24         0      -2.937  68.406  65.442  1.00  0.00     0.001 A 
HETATM   22  C26         0      -3.131  67.169  66.057  1.00  0.00     0.000 A 
HETATM   23  C25         0      -2.128  66.625  66.859  1.00  0.00     0.001 A 
HETATM   24  C23         0      -0.932  67.318  67.047  1.00  0.00     0.009 A 
ENDBRANCH  18  19
ENDBRANCH  15  18
ENDBRANCH  11  12
ENDBRANCH   2  11
BRANCH  10  25
HETATM   25  O3          0       1.830  68.418  60.789  1.00  0.00    -0.353 OA
HETATM   26  C28         0       0.609  68.801  61.417  1.00  0.00     0.210 C 
ENDBRANCH  10  25
BRANCH   9  27
HETATM   27  O2          0       4.254  69.740  60.503  1.00  0.00    -0.353 OA
HETATM   28  C27         0       3.940  69.367  59.164  1.00  0.00     0.210 C 
ENDBRANCH   9  27
TORSDOF 6
ENDMDL
MODEL 3
REMARK VINA RESULT:      -3.5      2.859      5.670
REMARK  6 active torsions:
REMARK  status: ('A' for Active; 'I' for Inactive)
REMARK    1  A    between atoms: O2_2  and  C20_20 
REMARK    2  A    between atoms: O3_3  and  C21_21 
REMARK    3  A    between atoms: N4_4  and  C16_16 
REMARK    4  A    between atoms: C5_5  and  C6_6 
REMARK    5  A    between atoms: C6_6  and  C7_7 
REMARK    6  A    between atoms: C16_16  and  C19_19 
ROOT
HETATM    1  O1          0       4.169  64.293  61.922  1.00  0.00    -0.292 OA
HETATM    2  C7          0       5.023  64.491  64.208  1.00  0.00     0.065 A 
HETATM    3  C12         0       5.438  65.770  64.970  1.00  0.00     0.052 A 
HETATM    4  C13         0       4.631  64.972  62.822  1.00  0.00     0.164 A 
HETATM    5  C14         0       5.370  66.849  63.935  1.00  0.00    -0.041 A 
HETATM    6  C15         0       4.899  66.397  62.710  1.00  0.00     0.019 A 
HETATM    7  C17         0       5.701  68.186  64.092  1.00  0.00     0.047 A 
HETATM    8  C18         0       4.738  67.222  61.612  1.00  0.00     0.055 A 
HETATM    9  C20         0       5.553  69.045  62.999  1.00  0.00     0.102 A 
HETATM   10  C21         0       5.074  68.567  61.768  1.00  0.00     0.102 A 
ENDROOT
BRANCH   2  11
HETATM   11  C6          0       3.878  63.758  64.880  1.00  0.00     0.017 C 
BRANCH  11  12
HETATM   12  C5          0       2.853  64.731  65.454  1.00  0.00    -0.010 C 
HETATM   13  C8          0       3.479  65.612  66.541  1.00  0.00     0.035 C 
HETATM   14  C10         0       2.484  66.658  67.050  1.00  0.00     0.273 C 
HETATM   15  N4          0       1.973  67.484  65.949  1.00  0.00     0.092 N 
HETATM   16  C11         0       1.301  66.660  64.935  1.00  0.00     0.273 C 
HETATM   17  C9          0       2.255  65.615  64.353  1.00  0.00     0.035 C 
BRANCH  15  18
HETATM   18  C16         0       1.065  68.512  66.457  1.00  0.00     0.311 C 
BRANCH  18  19
HETATM   19  C19         0      -0.377  68.094  66.342  1.00  0.00    -0.030 A 
HETATM   20  C22         0      -1.238  68.824  65.535  1.00  0.00     0.009 A 
HETATM   21  C24         0      -2.573  68.437  65.429  1.00  0.00     0.001 A 
HETATM   22  C26         0      -3.035  67.323  66.131  1.00  0.00     0.000 A 
HETATM   23  C25         0      -2.161  66.596  66.939  1.00  0.00     0.001 A 
HETATM   24  C23         0      -0.825  66.984  67.046  1.00  0.00     0.009 A 
ENDBRANCH  18  19
ENDBRANCH  15  18
ENDBRANCH  11  12
ENDBRANCH   2  11
BRANCH  10  25
HETATM   25  O3          0       4.930  69.416  60.711  1.00  0.00    -0.353 OA
HETATM   26  C28         0       3.825  69.183  59.840  1.00  0.00     0.210 C 
ENDBRANCH  10  25
BRANCH   9  27
HETATM   27  O2          0       5.876  70.363  63.142  1.00  0.00    -0.353 OA
HETATM   28  C27         0       6.924  70.676  64.056  1.00  0.00     0.210 C 
ENDBRANCH   9  27
TORSDOF 6
ENDMDL
MODEL 4
REMARK VINA RESULT:      -2.9      2.519      5.018
REMARK  6 active torsions:
REMARK  status: ('A' for Active; 'I' for Inactive)
REMARK    1  A    between atoms: O2_2  and  C20_20 
REMARK    2  A    between atoms: O3_3  and  C21_21 
REMARK    3  A    between atoms: N4_4  and  C16_16 
REMARK    4  A    between atoms: C5_5  and  C6_6 
REMARK    5  A    between atoms: C6_6  and  C7_7 
REMARK    6  A    between atoms: C16_16  and  C19_19 
ROOT
HETATM    1  O1          0       4.060  63.666  64.405  1.00  0.00    -0.292 OA
HETATM    2  C7          0       4.845  65.314  66.036  1.00  0.00     0.065 A 
HETATM    3  C12         0       5.152  66.813  65.814  1.00  0.00     0.052 A 
HETATM    4  C13         0       4.452  64.789  64.667  1.00  0.00     0.164 A 
HETATM    5  C14         0       5.032  66.995  64.334  1.00  0.00    -0.041 A 
HETATM    6  C15         0       4.621  65.842  63.678  1.00  0.00     0.019 A 
HETATM    7  C17         0       5.264  68.153  63.608  1.00  0.00     0.047 A 
HETATM    8  C18         0       4.428  65.781  62.311  1.00  0.00     0.055 A 
HETATM    9  C20         0       5.080  68.122  62.222  1.00  0.00     0.102 A 
HETATM   10  C21         0       4.664  66.945  61.578  1.00  0.00     0.102 A 
ENDROOT
BRANCH   2  11
HETATM   11  C6          0       3.740  65.089  67.050  1.00  0.00     0.017 C 
BRANCH  11  12
HETATM   12  C5          0       2.457  65.808  66.644  1.00  0.00    -0.010 C 
HETATM   13  C8          0       2.615  67.328  66.762  1.00  0.00     0.035 C 
HETATM   14  C10         0       1.367  68.057  66.261  1.00  0.00     0.273 C 
HETATM   15  N4          0       1.050  67.678  64.879  1.00  0.00     0.092 N 
HETATM   16  C11         0       0.818  66.232  64.765  1.00  0.00     0.273 C 
HETATM   17  C9          0       2.048  65.440  65.214  1.00  0.00     0.035 C 
BRANCH  15  18
HETATM   18  C16         0      -0.113  68.422  64.396  1.00  0.00     0.311 C 
BRANCH  18  19
HETATM   19  C19         0       0.049  68.852  62.963  1.00  0.00    -0.030 A 
HETATM   20  C22         0       1.302  68.796  62.370  1.00  0.00     0.009 A 
HETATM   21  C24         0       1.451  69.194  61.041  1.00  0.00     0.001 A 
HETATM   22  C26         0       0.346  69.643  60.319  1.00  0.00     0.000 A 
HETATM   23  C25         0      -0.909  69.695  60.925  1.00  0.00     0.001 A 
HETATM   24  C23         0      -1.059  69.298  62.254  1.00  0.00     0.009 A 
ENDBRANCH  18  19
ENDBRANCH  15  18
ENDBRANCH  11  12
ENDBRANCH   2  11
BRANCH  10  25
HETATM   25  O3          0       4.485  66.929  60.226  1.00  0.00    -0.353 OA
HETATM   26  C28         0       3.917  68.095  59.635  1.00  0.00     0.210 C 
ENDBRANCH  10  25
BRANCH   9  27
HETATM   27  O2          0       5.307  69.255  61.498  1.00  0.00    -0.353 OA
HETATM   28  C27         0       6.534  69.940  61.734  1.00  0.00     0.210 C 
ENDBRANCH   9  27
TORSDOF 6
ENDMDL
MODEL 5
REMARK VINA RESULT:      -2.8      2.320      5.235
REMARK  6 active torsions:
REMARK  status: ('A' for Active; 'I' for Inactive)
REMARK    1  A    between atoms: O2_2  and  C20_20 
REMARK    2  A    between atoms: O3_3  and  C21_21 
REMARK    3  A    between atoms: N4_4  and  C16_16 
REMARK    4  A    between atoms: C5_5  and  C6_6 
REMARK    5  A    between atoms: C6_6  and  C7_7 
REMARK    6  A    between atoms: C16_16  and  C19_19 
ROOT
HETATM    1  O1          0       5.467  69.484  62.579  1.00  0.00    -0.292 OA
HETATM    2  C7          0       4.562  67.897  60.950  1.00  0.00     0.065 A 
HETATM    3  C12         0       3.969  66.492  61.206  1.00  0.00     0.052 A 
HETATM    4  C13         0       5.010  68.387  62.315  1.00  0.00     0.164 A 
HETATM    5  C14         0       4.235  66.243  62.657  1.00  0.00    -0.041 A 
HETATM    6  C15         0       4.819  67.329  63.295  1.00  0.00     0.019 A 
HETATM    7  C17         0       3.947  65.096  63.380  1.00  0.00     0.047 A 
HETATM    8  C18         0       5.140  67.331  64.640  1.00  0.00     0.055 A 
HETATM    9  C20         0       4.262  65.066  64.741  1.00  0.00     0.102 A 
HETATM   10  C21         0       4.853  66.176  65.368  1.00  0.00     0.102 A 
ENDROOT
BRANCH   2  11
HETATM   11  C6          0       3.559  68.848  60.326  1.00  0.00     0.017 C 
BRANCH  11  12
HETATM   12  C5          0       2.394  69.128  61.270  1.00  0.00    -0.010 C 
HETATM   13  C8          0       1.161  69.610  60.497  1.00  0.00     0.035 C 
HETATM   14  C10         0      -0.040  69.796  61.427  1.00  0.00     0.273 C 
HETATM   15  N4          0      -0.341  68.559  62.158  1.00  0.00     0.092 N 
HETATM   16  C11         0       0.807  68.127  62.966  1.00  0.00     0.273 C 
HETATM   17  C9          0       2.037  67.883  62.089  1.00  0.00     0.035 C 
BRANCH  15  18
HETATM   18  C16         0      -1.523  68.736  63.002  1.00  0.00     0.311 C 
BRANCH  18  19
HETATM   19  C19         0      -1.266  68.313  64.424  1.00  0.00    -0.030 A 
HETATM   20  C22         0      -2.331  67.924  65.223  1.00  0.00     0.009 A 
HETATM   21  C24         0      -2.093  67.532  66.541  1.00  0.00     0.001 A 
HETATM   22  C26         0      -0.793  67.533  67.045  1.00  0.00     0.000 A 
HETATM   23  C25         0       0.270  67.927  66.232  1.00  0.00     0.001 A 
HETATM   24  C23         0       0.032  68.320  64.915  1.00  0.00     0.009 A 
ENDBRANCH  18  19
ENDBRANCH  15  18
ENDBRANCH  11  12
ENDBRANCH   2  11
BRANCH  10  25
HETATM   25  O3          0       5.152  66.135  66.698  1.00  0.00    -0.353 OA
HETATM   26  C28         0       6.497  65.818  67.049  1.00  0.00     0.210 C 
ENDBRANCH  10  25
BRANCH   9  27
HETATM   27  O2          0       3.983  63.941  65.462  1.00  0.00    -0.353 OA
HETATM   28  C27         0       3.676  64.118  66.843  1.00  0.00     0.210 C 
ENDBRANCH   9  27
TORSDOF 6
ENDMDL
MODEL 6
REMARK VINA RESULT:      -2.4      2.596      5.014
REMARK  6 active torsions:
REMARK  status: ('A' for Active; 'I' for Inactive)
REMARK    1  A    between atoms: O2_2  and  C20_20 
REMARK    2  A    between atoms: O3_3  and  C21_21 
REMARK    3  A    between atoms: N4_4  and  C16_16 
REMARK    4  A    between atoms: C5_5  and  C6_6 
REMARK    5  A    between atoms: C6_6  and  C7_7 
REMARK    6  A    between atoms: C16_16  and  C19_19 
ROOT
HETATM    1  O1          0       4.757  65.253  66.888  1.00  0.00    -0.292 OA
HETATM    2  C7          0       4.952  67.574  66.134  1.00  0.00     0.065 A 
HETATM    3  C12         0       4.854  68.126  64.694  1.00  0.00     0.052 A 
HETATM    4  C13         0       4.810  66.070  65.986  1.00  0.00     0.164 A 
HETATM    5  C14         0       4.789  66.902  63.837  1.00  0.00    -0.041 A 
HETATM    6  C15         0       4.753  65.725  64.574  1.00  0.00     0.019 A 
HETATM    7  C17         0       4.746  66.846  62.452  1.00  0.00     0.047 A 
HETATM    8  C18         0       4.676  64.473  63.993  1.00  0.00     0.055 A 
HETATM    9  C20         0       4.672  65.593  61.835  1.00  0.00     0.102 A 
HETATM   10  C21         0       4.636  64.415  62.600  1.00  0.00     0.102 A 
ENDROOT
BRANCH   2  11
HETATM   11  C6          0       3.884  68.140  67.050  1.00  0.00     0.017 C 
BRANCH  11  12
HETATM   12  C5          0       2.587  68.408  66.294  1.00  0.00    -0.010 C 
HETATM   13  C8          0       2.856  68.645  64.804  1.00  0.00     0.035 C 
HETATM   14  C10         0       1.551  68.814  64.023  1.00  0.00     0.273 C 
HETATM   15  N4          0       0.668  67.656  64.208  1.00  0.00     0.092 N 
HETATM   16  C11         0       0.337  67.463  65.627  1.00  0.00     0.273 C 
HETATM   17  C9          0       1.601  67.247  66.463  1.00  0.00     0.035 C 
BRANCH  15  18
HETATM   18  C16         0      -0.552  67.808  63.415  1.00  0.00     0.311 C 
BRANCH  18  19
HETATM   19  C19         0      -0.315  68.622  62.171  1.00  0.00    -0.030 A 
HETATM   20  C22         0       0.835  68.410  61.424  1.00  0.00     0.009 A 
HETATM   21  C24         0       1.054  69.164  60.271  1.00  0.00     0.001 A 
HETATM   22  C26         0       0.120  70.122  59.876  1.00  0.00     0.000 A 
HETATM   23  C25         0      -1.033  70.326  60.634  1.00  0.00     0.001 A 
HETATM   24  C23         0      -1.251  69.573  61.788  1.00  0.00     0.009 A 
ENDBRANCH  18  19
ENDBRANCH  15  18
ENDBRANCH  11  12
ENDBRANCH   2  11
BRANCH  10  25
HETATM   25  O3          0       4.559  63.200  61.986  1.00  0.00    -0.353 OA
HETATM   26  C28         0       5.684  62.335  62.122  1.00  0.00     0.210 C 
ENDBRANCH  10  25
BRANCH   9  27
HETATM   27  O2          0       4.629  65.526  60.473  1.00  0.00    -0.353 OA
HETATM   28  C27         0       4.397  66.746  59.773  1.00  0.00     0.210 C 
ENDBRANCH   9  27
TORSDOF 6
ENDMDL
