MODEL 1
REMARK VINA RESULT:      -9.5      0.000      0.000
REMARK  1 active torsions:
REMARK  status: ('A' for Active; 'I' for Inactive)
REMARK    1  A    between atoms: N2_2  and  C4_4 
ROOT
HETATM    1  O1          0       5.829  63.145  62.675  1.00  0.00    -0.268 OA
HETATM    2  N3          0       4.857  65.234  62.543  1.00  0.00    -0.327 N 
HETATM    3  C4          0       1.797  66.729  64.251  1.00  0.00     0.211 C 
HETATM    4  C5          0       3.058  68.531  63.042  1.00  0.00     0.045 C 
HETATM    5  C6          0       1.701  67.888  63.250  1.00  0.00    -0.033 C 
HETATM    6  C7          0       2.168  67.372  65.626  1.00  0.00     0.084 C 
HETATM    7  C8          0       2.925  65.764  63.817  1.00  0.00     0.007 A 
HETATM    8  C9          0       3.956  67.508  62.318  1.00  0.00     0.070 C 
HETATM    9  C10         0       3.875  66.125  62.925  1.00  0.00     0.022 A 
HETATM   10  C11         0       3.264  68.423  65.548  1.00  0.00    -0.084 C 
HETATM   11  C12         0       3.668  68.934  64.370  1.00  0.00    -0.015 C 
HETATM   12  C13         0       0.610  68.320  62.601  1.00  0.00    -0.025 C 
HETATM   13  C14         0       2.994  64.427  64.388  1.00  0.00     0.017 A 
HETATM   14  C15         0       3.865  68.853  66.852  1.00  0.00     0.043 C 
HETATM   15  C16         0       3.939  63.549  64.028  1.00  0.00     0.075 A 
HETATM   16  C17         0       4.961  63.941  63.023  1.00  0.00     0.245 A 
HETATM   17  C18         0       0.615  69.449  61.629  1.00  0.00     0.036 C 
HETATM   18  H29         0       5.544  65.553  61.867  1.00  0.00     0.169 HD
ENDROOT
BRANCH   3  19
HETATM   19  N2          0       0.509  66.022  64.401  1.00  0.00     0.097 N 
HETATM   20  H26         0       0.204  66.045  65.373  1.00  0.00     0.314 HD
HETATM   21  H25         0      -0.216  66.473  63.845  1.00  0.00     0.314 HD
ENDBRANCH   3  19
TORSDOF 1
ENDMDL
MODEL 2
REMARK VINA RESULT:      -9.2      3.033      4.865
REMARK  1 active torsions:
REMARK  status: ('A' for Active; 'I' for Inactive)
REMARK    1  A    between atoms: N2_2  and  C4_4 
ROOT
HETATM    1  O1          0      -2.445  68.289  65.024  1.00  0.00    -0.268 OA
HETATM    2  N3          0      -0.348  68.090  64.078  1.00  0.00    -0.327 N 
HETATM    3  C4          0       3.114  67.715  65.624  1.00  0.00     0.211 C 
HETATM    4  C5          0       3.250  67.358  63.143  1.00  0.00     0.045 C 
HETATM    5  C6          0       3.828  68.110  64.325  1.00  0.00    -0.033 C 
HETATM    6  C7          0       3.467  66.214  65.874  1.00  0.00     0.084 C 
HETATM    7  C8          0       1.585  67.856  65.437  1.00  0.00     0.007 A 
HETATM    8  C9          0       1.809  67.862  62.926  1.00  0.00     0.070 C 
HETATM    9  C10         0       1.017  67.945  64.212  1.00  0.00     0.022 A 
HETATM   10  C11         0       3.371  65.335  64.638  1.00  0.00    -0.084 C 
HETATM   11  C12         0       3.261  65.864  63.404  1.00  0.00    -0.015 C 
HETATM   12  C13         0       4.822  69.000  64.176  1.00  0.00    -0.025 C 
HETATM   13  C14         0       0.711  67.877  66.600  1.00  0.00     0.017 A 
HETATM   14  C15         0       3.404  63.855  64.870  1.00  0.00     0.043 C 
HETATM   15  C16         0      -0.616  68.018  66.489  1.00  0.00     0.075 A 
HETATM   16  C17         0      -1.231  68.149  65.142  1.00  0.00     0.245 A 
HETATM   17  C18         0       5.446  69.333  62.865  1.00  0.00     0.036 C 
HETATM   18  H29         0      -0.725  68.158  63.138  1.00  0.00     0.169 HD
ENDROOT
BRANCH   3  19
HETATM   19  N2          0       3.591  68.504  66.777  1.00  0.00     0.097 N 
HETATM   20  H26         0       2.802  68.827  67.336  1.00  0.00     0.314 HD
HETATM   21  H25         0       4.179  67.934  67.384  1.00  0.00     0.314 HD
ENDBRANCH   3  19
TORSDOF 1
ENDMDL
MODEL 3
REMARK VINA RESULT:      -8.3      3.237      5.287
REMARK  1 active torsions:
REMARK  status: ('A' for Active; 'I' for Inactive)
REMARK    1  A    between atoms: N2_2  and  C4_4 
ROOT
HETATM    1  O1          0      -1.484  69.678  66.740  1.00  0.00    -0.268 OA
HETATM    2  N3          0       0.760  69.143  66.671  1.00  0.00    -0.327 N 
HETATM    3  C4          0       2.691  66.526  64.686  1.00  0.00     0.211 C 
HETATM    4  C5          0       4.298  68.069  65.844  1.00  0.00     0.045 C 
HETATM    5  C6          0       3.921  66.622  65.598  1.00  0.00    -0.033 C 
HETATM    6  C7          0       3.138  67.082  63.296  1.00  0.00     0.084 C 
HETATM    7  C8          0       1.559  67.416  65.252  1.00  0.00     0.007 A 
HETATM    8  C9          0       3.178  68.709  66.688  1.00  0.00     0.070 C 
HETATM    9  C10         0       1.794  68.379  66.172  1.00  0.00     0.022 A 
HETATM   10  C11         0       3.954  68.362  63.367  1.00  0.00    -0.084 C 
HETATM   11  C12         0       4.466  68.808  64.530  1.00  0.00    -0.015 C 
HETATM   12  C13         0       4.610  65.612  66.151  1.00  0.00    -0.025 C 
HETATM   13  C14         0       0.194  67.240  64.778  1.00  0.00     0.017 A 
HETATM   14  C15         0       4.154  69.095  62.076  1.00  0.00     0.043 C 
HETATM   15  C16         0      -0.822  67.971  65.253  1.00  0.00     0.075 A 
HETATM   16  C17         0      -0.562  69.006  66.288  1.00  0.00     0.245 A 
HETATM   17  C18         0       5.788  65.801  67.042  1.00  0.00     0.036 C 
HETATM   18  H29         0       0.988  69.849  67.365  1.00  0.00     0.169 HD
ENDROOT
BRANCH   3  19
HETATM   19  N2          0       2.244  65.131  64.508  1.00  0.00     0.097 N 
HETATM   20  H26         0       1.945  64.739  65.400  1.00  0.00     0.314 HD
HETATM   21  H25         0       1.446  65.087  63.876  1.00  0.00     0.314 HD
ENDBRANCH   3  19
TORSDOF 1
ENDMDL
MODEL 4
REMARK VINA RESULT:      -7.5      2.592      4.878
REMARK  1 active torsions:
REMARK  status: ('A' for Active; 'I' for Inactive)
REMARK    1  A    between atoms: N2_2  and  C4_4 
ROOT
HETATM    1  O1          0      -1.601  68.704  62.919  1.00  0.00    -0.268 OA
HETATM    2  N3          0       0.288  67.543  63.561  1.00  0.00    -0.327 N 
HETATM    3  C4          0       3.803  67.397  62.097  1.00  0.00     0.211 C 
HETATM    4  C5          0       3.759  66.225  64.316  1.00  0.00     0.045 C 
HETATM    5  C6          0       4.156  66.112  62.858  1.00  0.00    -0.033 C 
HETATM    6  C7          0       4.715  68.518  62.691  1.00  0.00     0.084 C 
HETATM    7  C8          0       2.320  67.756  62.351  1.00  0.00     0.007 A 
HETATM    8  C9          0       2.219  66.266  64.382  1.00  0.00     0.070 C 
HETATM    9  C10         0       1.616  67.217  63.372  1.00  0.00     0.022 A 
HETATM   10  C11         0       4.802  68.514  64.208  1.00  0.00    -0.084 C 
HETATM   11  C12         0       4.355  67.474  64.937  1.00  0.00    -0.015 C 
HETATM   12  C13         0       4.724  65.000  62.367  1.00  0.00    -0.025 C 
HETATM   13  C14         0       1.649  68.716  61.487  1.00  0.00     0.017 A 
HETATM   14  C15         0       5.409  69.729  64.842  1.00  0.00     0.043 C 
HETATM   15  C16         0       0.361  69.042  61.654  1.00  0.00     0.075 A 
HETATM   16  C17         0      -0.417  68.422  62.759  1.00  0.00     0.245 A 
HETATM   17  C18         0       5.016  63.789  63.182  1.00  0.00     0.036 C 
HETATM   18  H29         0      -0.198  67.107  64.338  1.00  0.00     0.169 HD
ENDROOT
BRANCH   3  19
HETATM   19  N2          0       4.090  67.279  60.653  1.00  0.00     0.097 N 
HETATM   20  H26         0       4.956  67.765  60.424  1.00  0.00     0.314 HD
HETATM   21  H25         0       4.212  66.303  60.389  1.00  0.00     0.314 HD
ENDBRANCH   3  19
TORSDOF 1
ENDMDL
MODEL 5
REMARK VINA RESULT:      -7.3      1.717      3.336
REMARK  1 active torsions:
REMARK  status: ('A' for Active; 'I' for Inactive)
REMARK    1  A    between atoms: N2_2  and  C4_4 
ROOT
HETATM    1  O1          0       4.523  62.782  63.496  1.00  0.00    -0.268 OA
HETATM    2  N3          0       2.964  64.395  64.039  1.00  0.00    -0.327 N 
HETATM    3  C4          0       3.241  68.176  64.421  1.00  0.00     0.211 C 
HETATM    4  C5          0       0.827  67.490  64.497  1.00  0.00     0.045 C 
HETATM    5  C6          0       1.919  68.278  65.193  1.00  0.00    -0.033 C 
HETATM    6  C7          0       3.006  68.904  63.059  1.00  0.00     0.084 C 
HETATM    7  C8          0       3.569  66.688  64.154  1.00  0.00     0.007 A 
HETATM    8  C9          0       1.187  65.995  64.603  1.00  0.00     0.070 C 
HETATM    9  C10         0       2.635  65.716  64.265  1.00  0.00     0.022 A 
HETATM   10  C11         0       1.686  68.563  62.387  1.00  0.00    -0.084 C 
HETATM   11  C12         0       0.708  67.910  63.045  1.00  0.00    -0.015 C 
HETATM   12  C13         0       1.689  68.940  66.337  1.00  0.00    -0.025 C 
HETATM   13  C14         0       4.914  66.303  63.752  1.00  0.00     0.017 A 
HETATM   14  C15         0       1.538  68.990  60.958  1.00  0.00     0.043 C 
HETATM   15  C16         0       5.250  65.026  63.531  1.00  0.00     0.075 A 
HETATM   16  C17         0       4.228  63.959  63.686  1.00  0.00     0.245 A 
HETATM   17  C18         0       0.369  68.970  67.027  1.00  0.00     0.036 C 
HETATM   18  H29         0       2.228  63.703  64.141  1.00  0.00     0.169 HD
ENDROOT
BRANCH   3  19
HETATM   19  N2          0       4.346  68.854  65.127  1.00  0.00     0.097 N 
HETATM   20  H26         0       4.451  69.808  64.786  1.00  0.00     0.314 HD
HETATM   21  H25         0       4.155  68.909  66.126  1.00  0.00     0.314 HD
ENDBRANCH   3  19
TORSDOF 1
ENDMDL
MODEL 6
REMARK VINA RESULT:      -7.2      2.602      4.400
REMARK  1 active torsions:
REMARK  status: ('A' for Active; 'I' for Inactive)
REMARK    1  A    between atoms: N2_2  and  C4_4 
ROOT
HETATM    1  O1          0       5.926  69.244  61.193  1.00  0.00    -0.268 OA
HETATM    2  N3          0       4.762  67.565  62.267  1.00  0.00    -0.327 N 
HETATM    3  C4          0       3.617  67.172  65.880  1.00  0.00     0.211 C 
HETATM    4  C5          0       2.593  65.369  64.464  1.00  0.00     0.045 C 
HETATM    5  C6          0       3.378  65.664  65.727  1.00  0.00    -0.033 C 
HETATM    6  C7          0       2.210  67.814  66.104  1.00  0.00     0.084 C 
HETATM    7  C8          0       4.231  67.732  64.575  1.00  0.00     0.007 A 
HETATM    8  C9          0       3.494  65.711  63.261  1.00  0.00     0.070 C 
HETATM    9  C10         0       4.187  67.047  63.409  1.00  0.00     0.022 A 
HETATM   10  C11         0       1.128  67.290  65.174  1.00  0.00    -0.084 C 
HETATM   11  C12         0       1.316  66.186  64.426  1.00  0.00    -0.015 C 
HETATM   12  C13         0       3.788  64.684  66.547  1.00  0.00    -0.025 C 
HETATM   13  C14         0       4.864  69.043  64.576  1.00  0.00     0.017 A 
HETATM   14  C15         0      -0.152  68.068  65.138  1.00  0.00     0.043 C 
HETATM   15  C16         0       5.428  69.559  63.478  1.00  0.00     0.075 A 
HETATM   16  C17         0       5.405  68.788  62.207  1.00  0.00     0.245 A 
HETATM   17  C18         0       3.522  63.238  66.308  1.00  0.00     0.036 C 
HETATM   18  H29         0       4.707  67.009  61.419  1.00  0.00     0.169 HD
ENDROOT
BRANCH   3  19
HETATM   19  N2          0       4.461  67.481  67.050  1.00  0.00     0.097 N 
HETATM   20  H26         0       5.425  67.640  66.759  1.00  0.00     0.314 HD
HETATM   21  H25         0       4.141  68.331  67.511  1.00  0.00     0.314 HD
ENDBRANCH   3  19
TORSDOF 1
ENDMDL
MODEL 7
REMARK VINA RESULT:      -6.9      2.608      4.353
REMARK  1 active torsions:
REMARK  status: ('A' for Active; 'I' for Inactive)
REMARK    1  A    between atoms: N2_2  and  C4_4 
ROOT
HETATM    1  O1          0       3.535  68.916  59.961  1.00  0.00    -0.268 OA
HETATM    2  N3          0       2.927  67.641  61.787  1.00  0.00    -0.327 N 
HETATM    3  C4          0       4.448  67.289  65.263  1.00  0.00     0.211 C 
HETATM    4  C5          0       2.231  66.115  65.184  1.00  0.00     0.045 C 
HETATM    5  C6          0       3.696  65.983  65.550  1.00  0.00    -0.033 C 
HETATM    6  C7          0       3.866  68.352  66.250  1.00  0.00     0.084 C 
HETATM    7  C8          0       4.169  67.736  63.808  1.00  0.00     0.007 A 
HETATM    8  C9          0       2.141  66.248  63.651  1.00  0.00     0.070 C 
HETATM    9  C10         0       3.138  67.237  63.089  1.00  0.00     0.022 A 
HETATM   10  C11         0       2.351  68.337  66.360  1.00  0.00    -0.084 C 
HETATM   11  C12         0       1.617  67.323  65.863  1.00  0.00    -0.015 C 
HETATM   12  C13         0       4.199  64.841  66.042  1.00  0.00    -0.025 C 
HETATM   13  C14         0       5.020  68.738  63.182  1.00  0.00     0.017 A 
HETATM   14  C15         0       1.724  69.511  67.050  1.00  0.00     0.043 C 
HETATM   15  C16         0       4.831  69.140  61.920  1.00  0.00     0.075 A 
HETATM   16  C17         0       3.715  68.564  61.123  1.00  0.00     0.245 A 
HETATM   17  C18         0       3.391  63.611  66.274  1.00  0.00     0.036 C 
HETATM   18  H29         0       2.143  67.233  61.288  1.00  0.00     0.169 HD
ENDROOT
BRANCH   3  19
HETATM   19  N2          0       5.896  67.159  65.519  1.00  0.00     0.097 N 
HETATM   20  H26         0       6.061  66.899  66.490  1.00  0.00     0.314 HD
HETATM   21  H25         0       6.301  66.428  64.937  1.00  0.00     0.314 HD
ENDBRANCH   3  19
TORSDOF 1
ENDMDL
MODEL 8
REMARK VINA RESULT:      -6.7      2.475      4.830
REMARK  1 active torsions:
REMARK  status: ('A' for Active; 'I' for Inactive)
REMARK    1  A    between atoms: N2_2  and  C4_4 
ROOT
HETATM    1  O1          0      -0.958  68.267  63.667  1.00  0.00    -0.268 OA
HETATM    2  N3          0       0.628  66.614  63.949  1.00  0.00    -0.327 N 
HETATM    3  C4          0       4.376  66.542  63.264  1.00  0.00     0.211 C 
HETATM    4  C5          0       3.704  64.479  64.527  1.00  0.00     0.045 C 
HETATM    5  C6          0       4.439  65.010  63.312  1.00  0.00    -0.033 C 
HETATM    6  C7          0       5.190  67.049  64.497  1.00  0.00     0.084 C 
HETATM    7  C8          0       2.905  67.002  63.399  1.00  0.00     0.007 A 
HETATM    8  C9          0       2.203  64.768  64.330  1.00  0.00     0.070 C 
HETATM    9  C10         0       1.935  66.180  63.859  1.00  0.00     0.022 A 
HETATM   10  C11         0       4.901  66.300  65.788  1.00  0.00    -0.084 C 
HETATM   11  C12         0       4.216  65.140  65.792  1.00  0.00    -0.015 C 
HETATM   12  C13         0       5.030  64.187  62.432  1.00  0.00    -0.025 C 
HETATM   13  C14         0       2.537  68.364  63.043  1.00  0.00     0.017 A 
HETATM   14  C15         0       5.418  66.924  67.048  1.00  0.00     0.043 C 
HETATM   15  C16         0       1.274  68.802  63.122  1.00  0.00     0.075 A 
HETATM   16  C17         0       0.206  67.883  63.597  1.00  0.00     0.245 A 
HETATM   17  C18         0       5.026  62.703  62.552  1.00  0.00     0.036 C 
HETATM   18  H29         0      -0.064  65.956  64.295  1.00  0.00     0.169 HD
ENDROOT
BRANCH   3  19
HETATM   19  N2          0       5.000  67.081  62.040  1.00  0.00     0.097 N 
HETATM   20  H26         0       5.173  66.333  61.371  1.00  0.00     0.314 HD
HETATM   21  H25         0       4.384  67.755  61.589  1.00  0.00     0.314 HD
ENDBRANCH   3  19
TORSDOF 1
ENDMDL
