MODEL 1
REMARK VINA RESULT:      -7.1      0.000      0.000
REMARK  2 active torsions:
REMARK  status: ('A' for Active; 'I' for Inactive)
REMARK    1  A    between atoms: O2_2  and  C14_14 
REMARK    2  A    between atoms: O3_3  and  C17_17 
ROOT
HETATM    1  O1          0       2.754  67.567  62.036  1.00  0.00    -0.341 OA
HETATM    2  N4          0       4.070  66.445  67.010  1.00  0.00     0.088 N 
HETATM    3  C5          0       4.324  67.349  63.899  1.00  0.00     0.036 C 
HETATM    4  C6          0       3.993  66.922  62.433  1.00  0.00     0.148 C 
HETATM    5  C7          0       2.917  67.604  64.344  1.00  0.00     0.001 A 
HETATM    6  C8          0       5.012  66.184  64.640  1.00  0.00     0.051 C 
HETATM    7  C9          0       5.099  67.259  61.429  1.00  0.00     0.069 C 
HETATM    8  C10         0       5.147  68.622  63.958  1.00  0.00    -0.011 C 
HETATM    9  C11         0       2.097  67.740  63.229  1.00  0.00     0.110 A 
HETATM   10  C12         0       5.248  66.372  66.147  1.00  0.00     0.273 C 
HETATM   11  C13         0       2.402  67.751  65.627  1.00  0.00    -0.020 A 
HETATM   12  C14         0       5.526  68.728  61.488  1.00  0.00     0.143 C 
HETATM   13  C15         0       3.264  67.657  66.858  1.00  0.00     0.311 C 
HETATM   14  C16         0       5.662  69.240  62.886  1.00  0.00     0.002 C 
HETATM   15  C17         0       0.754  68.044  63.329  1.00  0.00     0.102 A 
HETATM   16  C18         0       1.033  68.051  65.742  1.00  0.00     0.012 A 
HETATM   17  C19         0       0.219  68.196  64.606  1.00  0.00     0.040 A 
HETATM   18  C20         0       3.285  65.217  67.050  1.00  0.00     0.310 C 
ENDROOT
BRANCH  15  19
HETATM   19  O3          0      -0.027  68.183  62.229  1.00  0.00    -0.353 OA
HETATM   20  C21         0       0.142  69.371  61.452  1.00  0.00     0.210 C 
ENDBRANCH  15  19
BRANCH  12  21
HETATM   21  O2          0       4.581  69.551  60.811  1.00  0.00    -0.392 OA
HETATM   22  H39         0       4.173  70.140  61.467  1.00  0.00     0.210 HD
ENDBRANCH  12  21
TORSDOF 2
ENDMDL
MODEL 2
REMARK VINA RESULT:      -6.4      2.630      4.607
REMARK  2 active torsions:
REMARK  status: ('A' for Active; 'I' for Inactive)
REMARK    1  A    between atoms: O2_2  and  C14_14 
REMARK    2  A    between atoms: O3_3  and  C17_17 
ROOT
HETATM    1  O1          0       2.446  66.396  66.704  1.00  0.00    -0.341 OA
HETATM    2  N4          0       4.442  67.982  62.096  1.00  0.00     0.088 N 
HETATM    3  C5          0       3.922  66.200  64.764  1.00  0.00     0.036 C 
HETATM    4  C6          0       3.840  66.261  66.323  1.00  0.00     0.148 C 
HETATM    5  C7          0       2.678  66.984  64.478  1.00  0.00     0.001 A 
HETATM    6  C8          0       5.216  66.884  64.280  1.00  0.00     0.051 C 
HETATM    7  C9          0       4.454  65.044  67.019  1.00  0.00     0.069 C 
HETATM    8  C10         0       3.799  64.784  64.234  1.00  0.00    -0.011 C 
HETATM    9  C11         0       1.886  67.026  65.621  1.00  0.00     0.110 A 
HETATM   10  C12         0       5.371  67.069  62.762  1.00  0.00     0.273 C 
HETATM   11  C13         0       2.252  67.577  63.295  1.00  0.00    -0.020 A 
HETATM   12  C14         0       3.899  63.717  66.494  1.00  0.00     0.143 C 
HETATM   13  C15         0       3.057  67.513  62.025  1.00  0.00     0.311 C 
HETATM   14  C16         0       3.770  63.687  65.005  1.00  0.00     0.002 C 
HETATM   15  C17         0       0.644  67.630  65.640  1.00  0.00     0.102 A 
HETATM   16  C18         0       0.993  68.203  63.305  1.00  0.00     0.012 A 
HETATM   17  C19         0       0.199  68.229  64.464  1.00  0.00     0.040 A 
HETATM   18  C20         0       4.573  69.372  62.513  1.00  0.00     0.310 C 
ENDROOT
BRANCH  15  19
HETATM   19  O3          0      -0.118  67.652  66.762  1.00  0.00    -0.353 OA
HETATM   20  C21         0      -1.521  67.431  66.604  1.00  0.00     0.210 C 
ENDBRANCH  15  19
BRANCH  12  21
HETATM   21  O2          0       2.612  63.459  67.050  1.00  0.00    -0.392 OA
HETATM   22  H39         0       2.281  64.288  67.434  1.00  0.00     0.210 HD
ENDBRANCH  12  21
TORSDOF 2
ENDMDL
MODEL 3
REMARK VINA RESULT:      -6.2      2.011      3.516
REMARK  2 active torsions:
REMARK  status: ('A' for Active; 'I' for Inactive)
REMARK    1  A    between atoms: O2_2  and  C14_14 
REMARK    2  A    between atoms: O3_3  and  C17_17 
ROOT
HETATM    1  O1          0       0.283  68.271  64.139  1.00  0.00    -0.341 OA
HETATM    2  N4          0       5.284  66.624  64.181  1.00  0.00     0.088 N 
HETATM    3  C5          0       2.403  67.657  63.087  1.00  0.00     0.036 C 
HETATM    4  C6          0       0.865  67.388  63.145  1.00  0.00     0.148 C 
HETATM    5  C7          0       2.565  68.135  64.497  1.00  0.00     0.001 A 
HETATM    6  C8          0       3.152  66.343  62.785  1.00  0.00     0.051 C 
HETATM    7  C9          0       0.157  67.580  61.801  1.00  0.00     0.069 C 
HETATM    8  C10         0       2.762  68.752  62.101  1.00  0.00    -0.011 C 
HETATM    9  C11         0       1.320  68.487  65.011  1.00  0.00     0.110 A 
HETATM   10  C12         0       4.686  66.391  62.867  1.00  0.00     0.273 C 
HETATM   11  C13         0       3.718  68.294  65.257  1.00  0.00    -0.020 A 
HETATM   12  C14         0       0.451  68.940  61.163  1.00  0.00     0.143 C 
HETATM   13  C15         0       5.088  67.970  64.721  1.00  0.00     0.311 C 
HETATM   14  C16         0       1.890  69.332  61.264  1.00  0.00     0.002 C 
HETATM   15  C17         0       1.165  69.024  66.274  1.00  0.00     0.102 A 
HETATM   16  C18         0       3.571  68.831  66.548  1.00  0.00     0.012 A 
HETATM   17  C19         0       2.309  69.191  67.050  1.00  0.00     0.040 A 
HETATM   18  C20         0       5.034  65.559  65.145  1.00  0.00     0.310 C 
ENDROOT
BRANCH  15  19
HETATM   19  O3          0      -0.056  69.371  66.753  1.00  0.00    -0.353 OA
HETATM   20  C21         0      -1.028  68.332  66.882  1.00  0.00     0.210 C 
ENDBRANCH  15  19
BRANCH  12  21
HETATM   21  O2          0      -0.325  69.961  61.783  1.00  0.00    -0.392 OA
HETATM   22  H39         0      -1.236  69.885  61.455  1.00  0.00     0.210 HD
ENDBRANCH  12  21
TORSDOF 2
ENDMDL
MODEL 4
REMARK VINA RESULT:      -6.0      2.058      4.339
REMARK  2 active torsions:
REMARK  status: ('A' for Active; 'I' for Inactive)
REMARK    1  A    between atoms: O2_2  and  C14_14 
REMARK    2  A    between atoms: O3_3  and  C17_17 
ROOT
HETATM    1  O1          0       0.693  68.880  64.146  1.00  0.00    -0.341 OA
HETATM    2  N4          0       5.860  68.177  63.413  1.00  0.00     0.088 N 
HETATM    3  C5          0       2.890  67.972  64.718  1.00  0.00     0.036 C 
HETATM    4  C6          0       1.673  68.816  65.215  1.00  0.00     0.148 C 
HETATM    5  C7          0       2.738  68.262  63.257  1.00  0.00     0.001 A 
HETATM    6  C8          0       4.194  68.524  65.330  1.00  0.00     0.051 C 
HETATM    7  C9          0       1.021  68.265  66.486  1.00  0.00     0.069 C 
HETATM    8  C10         0       2.718  66.491  64.995  1.00  0.00    -0.011 C 
HETATM    9  C11         0       1.457  68.749  63.014  1.00  0.00     0.110 A 
HETATM   10  C12         0       5.508  67.921  64.809  1.00  0.00     0.273 C 
HETATM   11  C13         0       3.635  68.071  62.212  1.00  0.00    -0.020 A 
HETATM   12  C14         0       0.649  66.784  66.369  1.00  0.00     0.143 C 
HETATM   13  C15         0       5.013  67.503  62.427  1.00  0.00     0.311 C 
HETATM   14  C16         0       1.713  65.967  65.711  1.00  0.00     0.002 C 
HETATM   15  C17         0       1.005  69.045  61.743  1.00  0.00     0.102 A 
HETATM   16  C18         0       3.189  68.378  60.915  1.00  0.00     0.012 A 
HETATM   17  C19         0       1.890  68.859  60.683  1.00  0.00     0.040 A 
HETATM   18  C20         0       6.113  69.580  63.111  1.00  0.00     0.310 C 
ENDROOT
BRANCH  15  19
HETATM   19  O3          0      -0.251  69.508  61.525  1.00  0.00    -0.353 OA
HETATM   20  C21         0      -0.490  70.204  60.300  1.00  0.00     0.210 C 
ENDBRANCH  15  19
BRANCH  12  21
HETATM   21  O2          0      -0.551  66.629  65.617  1.00  0.00    -0.392 OA
HETATM   22  H39         0      -1.059  67.454  65.691  1.00  0.00     0.210 HD
ENDBRANCH  12  21
TORSDOF 2
ENDMDL
MODEL 5
REMARK VINA RESULT:      -5.9      1.390      1.986
REMARK  2 active torsions:
REMARK  status: ('A' for Active; 'I' for Inactive)
REMARK    1  A    between atoms: O2_2  and  C14_14 
REMARK    2  A    between atoms: O3_3  and  C17_17 
ROOT
HETATM    1  O1          0       3.283  68.048  61.108  1.00  0.00    -0.341 OA
HETATM    2  N4          0       1.559  67.138  66.000  1.00  0.00     0.088 N 
HETATM    3  C5          0       3.570  67.724  63.515  1.00  0.00     0.036 C 
HETATM    4  C6          0       3.984  67.239  62.088  1.00  0.00     0.148 C 
HETATM    5  C7          0       2.215  68.248  63.151  1.00  0.00     0.001 A 
HETATM    6  C8          0       3.535  66.526  64.486  1.00  0.00     0.051 C 
HETATM    7  C9          0       5.491  67.300  61.831  1.00  0.00     0.069 C 
HETATM    8  C10         0       4.460  68.841  64.026  1.00  0.00    -0.011 C 
HETATM    9  C11         0       2.144  68.428  61.773  1.00  0.00     0.110 A 
HETATM   10  C12         0       2.976  66.796  65.891  1.00  0.00     0.273 C 
HETATM   11  C13         0       1.142  68.586  63.968  1.00  0.00    -0.020 A 
HETATM   12  C14         0       6.090  68.676  62.136  1.00  0.00     0.143 C 
HETATM   13  C15         0       1.196  68.452  65.467  1.00  0.00     0.311 C 
HETATM   14  C16         0       5.566  69.272  63.403  1.00  0.00     0.002 C 
HETATM   15  C17         0       1.032  68.960  61.151  1.00  0.00     0.102 A 
HETATM   16  C18         0       0.001  69.121  63.345  1.00  0.00     0.012 A 
HETATM   17  C19         0      -0.053  69.306  61.953  1.00  0.00     0.040 A 
HETATM   18  C20         0       0.657  66.067  65.594  1.00  0.00     0.310 C 
ENDROOT
BRANCH  15  19
HETATM   19  O3          0       0.986  69.138  59.808  1.00  0.00    -0.353 OA
HETATM   20  C21         0      -0.254  69.570  59.246  1.00  0.00     0.210 C 
ENDBRANCH  15  19
BRANCH  12  21
HETATM   21  O2          0       5.814  69.587  61.076  1.00  0.00    -0.392 OA
HETATM   22  H39         0       5.217  69.144  60.449  1.00  0.00     0.210 HD
ENDBRANCH  12  21
TORSDOF 2
ENDMDL
MODEL 6
REMARK VINA RESULT:      -5.8      2.701      5.180
REMARK  2 active torsions:
REMARK  status: ('A' for Active; 'I' for Inactive)
REMARK    1  A    between atoms: O2_2  and  C14_14 
REMARK    2  A    between atoms: O3_3  and  C17_17 
ROOT
HETATM    1  O1          0       3.779  65.639  64.572  1.00  0.00    -0.341 OA
HETATM    2  N4          0       0.935  69.155  61.874  1.00  0.00     0.088 N 
HETATM    3  C5          0       2.439  67.671  64.344  1.00  0.00     0.036 C 
HETATM    4  C6          0       2.596  66.304  65.084  1.00  0.00     0.148 C 
HETATM    5  C7          0       3.131  67.280  63.075  1.00  0.00     0.001 A 
HETATM    6  C8          0       0.943  68.000  64.163  1.00  0.00     0.051 C 
HETATM    7  C9          0       2.691  66.437  66.606  1.00  0.00     0.069 C 
HETATM    8  C10         0       3.184  68.794  65.040  1.00  0.00    -0.011 C 
HETATM    9  C11         0       3.889  66.134  63.296  1.00  0.00     0.110 A 
HETATM   10  C12         0       0.608  69.225  63.297  1.00  0.00     0.273 C 
HETATM   11  C13         0       3.135  67.905  61.833  1.00  0.00    -0.020 A 
HETATM   12  C14         0       3.773  67.426  67.050  1.00  0.00     0.143 C 
HETATM   13  C15         0       2.366  69.172  61.566  1.00  0.00     0.311 C 
HETATM   14  C16         0       3.790  68.676  66.231  1.00  0.00     0.002 C 
HETATM   15  C17         0       4.689  65.574  62.320  1.00  0.00     0.102 A 
HETATM   16  C18         0       3.938  67.338  60.828  1.00  0.00     0.012 A 
HETATM   17  C19         0       4.706  66.186  61.069  1.00  0.00     0.040 A 
HETATM   18  C20         0       0.187  68.141  61.141  1.00  0.00     0.310 C 
ENDROOT
BRANCH  15  19
HETATM   19  O3          0       5.428  64.463  62.559  1.00  0.00    -0.353 OA
HETATM   20  C21         0       4.744  63.208  62.562  1.00  0.00     0.210 C 
ENDBRANCH  15  19
BRANCH  12  21
HETATM   21  O2          0       5.063  66.828  66.962  1.00  0.00    -0.392 OA
HETATM   22  H39         0       4.951  65.865  67.038  1.00  0.00     0.210 HD
ENDBRANCH  12  21
TORSDOF 2
ENDMDL
MODEL 7
REMARK VINA RESULT:      -5.6      1.924      3.041
REMARK  2 active torsions:
REMARK  status: ('A' for Active; 'I' for Inactive)
REMARK    1  A    between atoms: O2_2  and  C14_14 
REMARK    2  A    between atoms: O3_3  and  C17_17 
ROOT
HETATM    1  O1          0       3.362  67.434  62.681  1.00  0.00    -0.341 OA
HETATM    2  N4          0      -0.324  67.723  66.430  1.00  0.00     0.088 N 
HETATM    3  C5          0       2.589  67.625  64.993  1.00  0.00     0.036 C 
HETATM    4  C6          0       3.472  66.815  63.990  1.00  0.00     0.148 C 
HETATM    5  C7          0       1.596  68.142  63.998  1.00  0.00     0.001 A 
HETATM    6  C8          0       1.982  66.672  66.043  1.00  0.00     0.051 C 
HETATM    7  C9          0       4.944  66.724  64.401  1.00  0.00     0.069 C 
HETATM    8  C10         0       3.350  68.768  65.639  1.00  0.00    -0.011 C 
HETATM    9  C11         0       2.122  68.021  62.716  1.00  0.00     0.110 A 
HETATM   10  C12         0       0.945  67.277  67.003  1.00  0.00     0.273 C 
HETATM   11  C13         0       0.348  68.717  64.203  1.00  0.00    -0.020 A 
HETATM   12  C14         0       5.565  68.093  64.694  1.00  0.00     0.143 C 
HETATM   13  C15         0      -0.236  68.910  65.578  1.00  0.00     0.311 C 
HETATM   14  C16         0       4.665  68.983  65.489  1.00  0.00     0.002 C 
HETATM   15  C17         0       1.455  68.474  61.595  1.00  0.00     0.102 A 
HETATM   16  C18         0      -0.346  69.174  63.068  1.00  0.00     0.012 A 
HETATM   17  C19         0       0.202  69.054  61.780  1.00  0.00     0.040 A 
HETATM   18  C20         0      -1.131  66.649  65.865  1.00  0.00     0.310 C 
ENDROOT
BRANCH  15  19
HETATM   19  O3          0       1.989  68.357  60.354  1.00  0.00    -0.353 OA
HETATM   20  C21         0       3.323  68.834  60.167  1.00  0.00     0.210 C 
ENDBRANCH  15  19
BRANCH  12  21
HETATM   21  O2          0       5.885  68.766  63.480  1.00  0.00    -0.392 OA
HETATM   22  H39         0       5.052  68.963  63.019  1.00  0.00     0.210 HD
ENDBRANCH  12  21
TORSDOF 2
ENDMDL
MODEL 8
REMARK VINA RESULT:      -5.5      1.574      4.180
REMARK  2 active torsions:
REMARK  status: ('A' for Active; 'I' for Inactive)
REMARK    1  A    between atoms: O2_2  and  C14_14 
REMARK    2  A    between atoms: O3_3  and  C17_17 
ROOT
HETATM    1  O1          0       1.527  69.012  63.754  1.00  0.00    -0.341 OA
HETATM    2  N4          0       4.609  65.468  66.135  1.00  0.00     0.088 N 
HETATM    3  C5          0       2.033  67.329  65.454  1.00  0.00     0.036 C 
HETATM    4  C6          0       1.577  68.800  65.188  1.00  0.00     0.148 C 
HETATM    5  C7          0       2.820  67.144  64.193  1.00  0.00     0.001 A 
HETATM    6  C8          0       2.887  67.270  66.737  1.00  0.00     0.051 C 
HETATM    7  C9          0       0.223  69.146  65.813  1.00  0.00     0.069 C 
HETATM    8  C10         0       0.865  66.363  65.507  1.00  0.00    -0.011 C 
HETATM    9  C11         0       2.455  68.122  63.273  1.00  0.00     0.110 A 
HETATM   10  C12         0       3.565  65.926  67.050  1.00  0.00     0.273 C 
HETATM   11  C13         0       3.750  66.167  63.860  1.00  0.00    -0.020 A 
HETATM   12  C14         0      -0.879  68.155  65.430  1.00  0.00     0.143 C 
HETATM   13  C15         0       4.137  65.064  64.809  1.00  0.00     0.311 C 
HETATM   14  C16         0      -0.424  66.732  65.477  1.00  0.00     0.002 C 
HETATM   15  C17         0       2.971  68.165  61.994  1.00  0.00     0.102 A 
HETATM   16  C18         0       4.290  66.206  62.562  1.00  0.00     0.012 A 
HETATM   17  C19         0       3.905  67.194  61.640  1.00  0.00     0.040 A 
HETATM   18  C20         0       5.790  66.322  66.105  1.00  0.00     0.310 C 
ENDROOT
BRANCH  15  19
HETATM   19  O3          0       2.595  69.121  61.107  1.00  0.00    -0.353 OA
HETATM   20  C21         0       1.222  69.143  60.712  1.00  0.00     0.210 C 
ENDBRANCH  15  19
BRANCH  12  21
HETATM   21  O2          0      -1.353  68.419  64.113  1.00  0.00    -0.392 OA
HETATM   22  H39         0      -2.162  67.897  63.976  1.00  0.00     0.210 HD
ENDBRANCH  12  21
TORSDOF 2
ENDMDL
MODEL 9
REMARK VINA RESULT:      -4.8      2.721      4.637
REMARK  2 active torsions:
REMARK  status: ('A' for Active; 'I' for Inactive)
REMARK    1  A    between atoms: O2_2  and  C14_14 
REMARK    2  A    between atoms: O3_3  and  C17_17 
ROOT
HETATM    1  O1          0       1.942  68.290  65.956  1.00  0.00    -0.341 OA
HETATM    2  N4          0       2.066  68.863  60.723  1.00  0.00     0.088 N 
HETATM    3  C5          0       2.909  67.971  63.732  1.00  0.00     0.036 C 
HETATM    4  C6          0       3.151  68.503  65.181  1.00  0.00     0.148 C 
HETATM    5  C7          0       1.425  68.169  63.703  1.00  0.00     0.001 A 
HETATM    6  C8          0       3.675  68.847  62.719  1.00  0.00     0.051 C 
HETATM    7  C9          0       4.342  67.847  65.885  1.00  0.00     0.069 C 
HETATM    8  C10         0       3.260  66.503  63.589  1.00  0.00    -0.011 C 
HETATM    9  C11         0       0.953  68.316  65.005  1.00  0.00     0.110 A 
HETATM   10  C12         0       3.406  68.572  61.231  1.00  0.00     0.273 C 
HETATM   11  C13         0       0.548  68.174  62.625  1.00  0.00    -0.020 A 
HETATM   12  C14         0       4.274  66.317  65.868  1.00  0.00     0.143 C 
HETATM   13  C15         0       1.012  67.971  61.207  1.00  0.00     0.311 C 
HETATM   14  C16         0       3.848  65.768  64.545  1.00  0.00     0.002 C 
HETATM   15  C17         0      -0.390  68.453  65.295  1.00  0.00     0.102 A 
HETATM   16  C18         0      -0.822  68.322  62.908  1.00  0.00     0.012 A 
HETATM   17  C19         0      -1.284  68.459  64.228  1.00  0.00     0.040 A 
HETATM   18  C20         0       1.709  70.276  60.765  1.00  0.00     0.310 C 
ENDROOT
BRANCH  15  19
HETATM   19  O3          0      -0.831  68.584  66.571  1.00  0.00    -0.353 OA
HETATM   20  C21         0      -1.753  67.603  67.050  1.00  0.00     0.210 C 
ENDBRANCH  15  19
BRANCH  12  21
HETATM   21  O2          0       3.358  65.847  66.853  1.00  0.00    -0.392 OA
HETATM   22  H39         0       2.879  65.089  66.477  1.00  0.00     0.210 HD
ENDBRANCH  12  21
TORSDOF 2
ENDMDL
