REMARK  5 active torsions:
REMARK  status: ('A' for Active; 'I' for Inactive)
REMARK    1  A    between atoms: O1_1  and  C12_12 
REMARK    2  A    between atoms: O1_1  and  C16_16 
REMARK    3  A    between atoms: N3_3  and  C5_5 
REMARK    4  A    between atoms: N4_4  and  C15_15 
REMARK       I    between atoms: N4_4  and  C16_16 
REMARK    5  A    between atoms: C5_5  and  C6_6 
ROOT
HETATM    1  O1          0      -1.663   0.398  -0.517  1.00  0.00    -0.261 OA
ENDROOT
BRANCH   1   2
HETATM    2  C12         0      -0.411   0.908  -0.159  1.00  0.00     0.081 A 
HETATM    3  C8          0       0.716   0.200  -0.510  1.00  0.00     0.046 A 
HETATM    4  C6          0       1.964   0.710  -0.152  1.00  0.00    -0.023 A 
HETATM    5  C9          0       2.052   1.914   0.547  1.00  0.00     0.009 A 
HETATM    6  C13         0       0.891   2.608   0.888  1.00  0.00     0.003 A 
HETATM    7  C14         0      -0.357   2.099   0.531  1.00  0.00     0.037 A 
BRANCH   4   8
HETATM    8  C5          0       3.205  -0.032  -0.517  1.00  0.00     0.251 C 
HETATM    9  C7          0       3.378  -0.193  -2.038  1.00  0.00     0.048 C 
BRANCH   8  10
HETATM   10  N3          0       3.262  -1.373   0.096  1.00  0.00     0.088 N 
HETATM   11  C10         0       3.225  -1.259   1.549  1.00  0.00     0.310 C 
HETATM   12  C11         0       4.464  -2.071  -0.343  1.00  0.00     0.310 C 
ENDBRANCH   8  10
ENDBRANCH   4   8
ENDBRANCH   1   2
BRANCH   1  13
HETATM   13  C16         0      -2.232  -0.448   0.440  1.00  0.00     0.367 C 
HETATM   14  N4          0      -3.481  -0.937   0.044  1.00  0.00    -0.332 N 
HETATM   15  C17         0      -4.225  -1.835   0.916  1.00  0.00     0.155 C 
HETATM   16  O2          0      -1.686  -0.725   1.507  1.00  0.00    -0.238 OA
BRANCH  14  17
HETATM   17  C15         0      -4.122  -0.600  -1.223  1.00  0.00     0.123 C 
HETATM   18  C18         0      -4.983   0.638  -1.060  1.00  0.00     0.026 C 
ENDBRANCH  14  17
ENDBRANCH   1  13
TORSDOF 5
