MODEL 1
REMARK VINA RESULT:      -8.0      0.000      0.000
REMARK  1 active torsions:
REMARK  status: ('A' for Active; 'I' for Inactive)
REMARK    1  A    between atoms: N2_2  and  C9_9 
ROOT
HETATM    1  N1          0       3.120  68.636  65.526  1.00  0.00    -0.252 NA
HETATM    2  C3          0      -0.971  67.641  65.983  1.00  0.00     0.005 C 
HETATM    3  C4          0      -0.517  68.067  64.587  1.00  0.00     0.043 C 
HETATM    4  C5          0      -0.299  68.496  67.050  1.00  0.00     0.006 C 
HETATM    5  C6          0       0.970  68.264  64.485  1.00  0.00    -0.006 A 
HETATM    6  C7          0       1.215  68.313  66.997  1.00  0.00     0.060 C 
HETATM    7  C8          0       1.781  68.425  65.606  1.00  0.00     0.043 A 
HETATM    8  C9          0       1.581  68.357  63.234  1.00  0.00     0.046 A 
HETATM    9  C10         0       2.960  68.580  63.127  1.00  0.00     0.019 A 
HETATM   10  C11         0       3.701  68.714  64.316  1.00  0.00     0.069 A 
HETATM   11  C12         0       3.597  68.670  61.878  1.00  0.00     0.016 A 
HETATM   12  C13         0       5.071  68.934  64.212  1.00  0.00     0.032 A 
HETATM   13  C14         0       4.970  68.891  61.802  1.00  0.00     0.001 A 
HETATM   14  C15         0       5.707  69.023  62.971  1.00  0.00     0.002 A 
ENDROOT
BRANCH   8  15
HETATM   15  N2          0       0.787  68.230  62.064  1.00  0.00    -0.398 N 
HETATM   16  H26         0       1.202  68.327  61.149  1.00  0.00     0.156 HD
HETATM   17  H27         0      -0.193  67.994  62.105  1.00  0.00     0.156 HD
ENDBRANCH   8  15
TORSDOF 1
ENDMDL
MODEL 2
REMARK VINA RESULT:      -7.9      2.327      3.972
REMARK  1 active torsions:
REMARK  status: ('A' for Active; 'I' for Inactive)
REMARK    1  A    between atoms: N2_2  and  C9_9 
ROOT
HETATM    1  N1          0       3.866  67.608  63.432  1.00  0.00    -0.252 NA
HETATM    2  C3          0       4.343  65.455  67.049  1.00  0.00     0.005 C 
HETATM    3  C4          0       2.997  66.146  66.830  1.00  0.00     0.043 C 
HETATM    4  C5          0       5.485  66.340  66.564  1.00  0.00     0.006 C 
HETATM    5  C6          0       2.866  66.765  65.466  1.00  0.00    -0.006 A 
HETATM    6  C7          0       5.353  66.598  65.065  1.00  0.00     0.060 C 
HETATM    7  C8          0       3.968  67.021  64.653  1.00  0.00     0.043 A 
HETATM    8  C9          0       1.616  67.167  64.996  1.00  0.00     0.046 A 
HETATM    9  C10         0       1.487  67.779  63.742  1.00  0.00     0.019 A 
HETATM   10  C11         0       2.655  67.982  62.984  1.00  0.00     0.069 A 
HETATM   11  C12         0       0.237  68.186  63.245  1.00  0.00     0.016 A 
HETATM   12  C13         0       2.530  68.590  61.738  1.00  0.00     0.032 A 
HETATM   13  C14         0       0.140  68.792  61.996  1.00  0.00     0.001 A 
HETATM   14  C15         0       1.288  68.994  61.241  1.00  0.00     0.002 A 
ENDROOT
BRANCH   8  15
HETATM   15  N2          0       0.470  66.953  65.805  1.00  0.00    -0.398 N 
HETATM   16  H26         0       0.568  66.721  66.783  1.00  0.00     0.156 HD
HETATM   17  H27         0      -0.467  67.071  65.450  1.00  0.00     0.156 HD
ENDBRANCH   8  15
TORSDOF 1
ENDMDL
MODEL 3
REMARK VINA RESULT:      -7.8      0.628      2.534
REMARK  1 active torsions:
REMARK  status: ('A' for Active; 'I' for Inactive)
REMARK    1  A    between atoms: N2_2  and  C9_9 
ROOT
HETATM    1  N1          0       1.397  68.308  63.278  1.00  0.00    -0.252 NA
HETATM    2  C3          0      -0.539  68.255  67.045  1.00  0.00     0.005 C 
HETATM    3  C4          0       0.982  68.109  67.050  1.00  0.00     0.043 C 
HETATM    4  C5          0      -1.149  67.466  65.893  1.00  0.00     0.006 C 
HETATM    5  C6          0       1.596  68.280  65.687  1.00  0.00    -0.006 A 
HETATM    6  C7          0      -0.645  68.005  64.557  1.00  0.00     0.060 C 
HETATM    7  C8          0       0.850  68.187  64.515  1.00  0.00     0.043 A 
HETATM    8  C9          0       2.971  68.475  65.558  1.00  0.00     0.046 A 
HETATM    9  C10         0       3.559  68.596  64.292  1.00  0.00     0.019 A 
HETATM   10  C11         0       2.723  68.506  63.164  1.00  0.00     0.069 A 
HETATM   11  C12         0       4.941  68.800  64.138  1.00  0.00     0.016 A 
HETATM   12  C13         0       3.304  68.627  61.905  1.00  0.00     0.032 A 
HETATM   13  C14         0       5.498  68.918  62.867  1.00  0.00     0.001 A 
HETATM   14  C15         0       4.678  68.831  61.749  1.00  0.00     0.002 A 
ENDROOT
BRANCH   8  15
HETATM   15  N2          0       3.775  68.544  66.726  1.00  0.00    -0.398 N 
HETATM   16  H26         0       3.349  68.638  67.637  1.00  0.00     0.156 HD
HETATM   17  H27         0       4.778  68.456  66.692  1.00  0.00     0.156 HD
ENDBRANCH   8  15
TORSDOF 1
ENDMDL
MODEL 4
REMARK VINA RESULT:      -7.7      0.610      4.743
REMARK  1 active torsions:
REMARK  status: ('A' for Active; 'I' for Inactive)
REMARK    1  A    between atoms: N2_2  and  C9_9 
ROOT
HETATM    1  N1          0       2.551  68.425  65.587  1.00  0.00    -0.252 NA
HETATM    2  C3          0       4.523  68.904  61.869  1.00  0.00     0.005 C 
HETATM    3  C4          0       3.074  68.420  61.823  1.00  0.00     0.043 C 
HETATM    4  C5          0       5.273  68.243  63.019  1.00  0.00     0.006 C 
HETATM    5  C6          0       2.411  68.414  63.173  1.00  0.00    -0.006 A 
HETATM    6  C7          0       4.634  68.620  64.353  1.00  0.00     0.060 C 
HETATM    7  C8          0       3.136  68.462  64.362  1.00  0.00     0.043 A 
HETATM    8  C9          0       1.025  68.292  63.273  1.00  0.00     0.046 A 
HETATM    9  C10         0       0.400  68.246  64.526  1.00  0.00     0.019 A 
HETATM   10  C11         0       1.213  68.318  65.672  1.00  0.00     0.069 A 
HETATM   11  C12         0      -0.995  68.131  64.650  1.00  0.00     0.016 A 
HETATM   12  C13         0       0.595  68.273  66.918  1.00  0.00     0.032 A 
HETATM   13  C14         0      -1.589  68.088  65.908  1.00  0.00     0.001 A 
HETATM   14  C15         0      -0.792  68.159  67.044  1.00  0.00     0.002 A 
ENDROOT
BRANCH   8  15
HETATM   15  N2          0       0.250  68.209  62.086  1.00  0.00    -0.398 N 
HETATM   16  H26         0       0.323  68.921  61.374  1.00  0.00     0.156 HD
HETATM   17  H27         0      -0.354  67.424  61.896  1.00  0.00     0.156 HD
ENDBRANCH   8  15
TORSDOF 1
ENDMDL
MODEL 5
REMARK VINA RESULT:      -7.7      0.718      5.339
REMARK  1 active torsions:
REMARK  status: ('A' for Active; 'I' for Inactive)
REMARK    1  A    between atoms: N2_2  and  C9_9 
ROOT
HETATM    1  N1          0       1.264  68.272  63.281  1.00  0.00    -0.252 NA
HETATM    2  C3          0       5.494  68.390  63.092  1.00  0.00     0.005 C 
HETATM    3  C4          0       4.854  68.753  64.431  1.00  0.00     0.043 C 
HETATM    4  C5          0       4.690  68.975  61.937  1.00  0.00     0.006 C 
HETATM    5  C6          0       3.364  68.549  64.448  1.00  0.00    -0.006 A 
HETATM    6  C7          0       3.278  68.395  61.929  1.00  0.00     0.060 C 
HETATM    7  C8          0       2.614  68.426  63.280  1.00  0.00     0.043 A 
HETATM    8  C9          0       2.671  68.542  65.658  1.00  0.00     0.046 A 
HETATM    9  C10         0       1.278  68.391  65.683  1.00  0.00     0.019 A 
HETATM   10  C11         0       0.607  68.257  64.454  1.00  0.00     0.069 A 
HETATM   11  C12         0       0.560  68.374  66.891  1.00  0.00     0.016 A 
HETATM   12  C13         0      -0.777  68.106  64.476  1.00  0.00     0.032 A 
HETATM   13  C14         0      -0.824  68.222  66.886  1.00  0.00     0.001 A 
HETATM   14  C15         0      -1.493  68.088  65.676  1.00  0.00     0.002 A 
ENDROOT
BRANCH   8  15
HETATM   15  N2          0       3.392  68.696  66.871  1.00  0.00    -0.398 N 
HETATM   16  H26         0       2.906  68.867  67.740  1.00  0.00     0.156 HD
HETATM   17  H27         0       4.395  68.594  66.914  1.00  0.00     0.156 HD
ENDBRANCH   8  15
TORSDOF 1
ENDMDL
MODEL 6
REMARK VINA RESULT:      -7.6      2.217      3.875
REMARK  1 active torsions:
REMARK  status: ('A' for Active; 'I' for Inactive)
REMARK    1  A    between atoms: N2_2  and  C9_9 
ROOT
HETATM    1  N1          0       1.938  67.790  64.685  1.00  0.00    -0.252 NA
HETATM    2  C3          0       1.197  68.875  60.659  1.00  0.00     0.005 C 
HETATM    3  C4          0       2.660  68.787  61.090  1.00  0.00     0.043 C 
HETATM    4  C5          0       0.351  69.506  61.758  1.00  0.00     0.006 C 
HETATM    5  C6          0       2.833  68.260  62.489  1.00  0.00    -0.006 A 
HETATM    6  C7          0       0.394  68.645  63.017  1.00  0.00     0.060 C 
HETATM    7  C8          0       1.788  68.233  63.410  1.00  0.00     0.043 A 
HETATM    8  C9          0       4.087  67.836  62.929  1.00  0.00     0.046 A 
HETATM    9  C10         0       4.267  67.381  64.241  1.00  0.00     0.019 A 
HETATM   10  C11         0       3.149  67.374  65.096  1.00  0.00     0.069 A 
HETATM   11  C12         0       5.519  66.943  64.704  1.00  0.00     0.016 A 
HETATM   12  C13         0       3.325  66.920  66.401  1.00  0.00     0.032 A 
HETATM   13  C14         0       5.668  66.494  66.014  1.00  0.00     0.001 A 
HETATM   14  C15         0       4.569  66.483  66.863  1.00  0.00     0.002 A 
ENDROOT
BRANCH   8  15
HETATM   15  N2          0       5.186  67.877  62.032  1.00  0.00    -0.398 N 
HETATM   16  H26         0       5.914  67.179  62.080  1.00  0.00     0.156 HD
HETATM   17  H27         0       5.252  68.564  61.296  1.00  0.00     0.156 HD
ENDBRANCH   8  15
TORSDOF 1
ENDMDL
MODEL 7
REMARK VINA RESULT:      -7.5      1.431      4.846
REMARK  1 active torsions:
REMARK  status: ('A' for Active; 'I' for Inactive)
REMARK    1  A    between atoms: N2_2  and  C9_9 
ROOT
HETATM    1  N1          0       1.705  67.313  66.701  1.00  0.00    -0.252 NA
HETATM    2  C3          0       5.183  68.253  64.473  1.00  0.00     0.005 C 
HETATM    3  C4          0       3.856  68.262  63.716  1.00  0.00     0.043 C 
HETATM    4  C5          0       5.231  67.090  65.456  1.00  0.00     0.006 C 
HETATM    5  C6          0       2.664  68.057  64.610  1.00  0.00    -0.006 A 
HETATM    6  C7          0       4.123  67.230  66.497  1.00  0.00     0.060 C 
HETATM    7  C8          0       2.776  67.532  65.895  1.00  0.00     0.043 A 
HETATM    8  C9          0       1.380  68.333  64.140  1.00  0.00     0.046 A 
HETATM    9  C10         0       0.259  68.108  64.951  1.00  0.00     0.019 A 
HETATM   10  C11         0       0.472  67.591  66.242  1.00  0.00     0.069 A 
HETATM   11  C12         0      -1.043  68.385  64.501  1.00  0.00     0.016 A 
HETATM   12  C13         0      -0.640  67.369  67.050  1.00  0.00     0.032 A 
HETATM   13  C14         0      -2.138  68.153  65.329  1.00  0.00     0.001 A 
HETATM   14  C15         0      -1.936  67.644  66.605  1.00  0.00     0.002 A 
ENDROOT
BRANCH   8  15
HETATM   15  N2          0       1.217  68.839  62.824  1.00  0.00    -0.398 N 
HETATM   16  H26         0       0.401  68.599  62.279  1.00  0.00     0.156 HD
HETATM   17  H27         0       1.875  69.483  62.413  1.00  0.00     0.156 HD
ENDBRANCH   8  15
TORSDOF 1
ENDMDL
MODEL 8
REMARK VINA RESULT:      -7.3      2.068      2.825
REMARK  1 active torsions:
REMARK  status: ('A' for Active; 'I' for Inactive)
REMARK    1  A    between atoms: N2_2  and  C9_9 
ROOT
HETATM    1  N1          0       1.792  66.862  66.427  1.00  0.00    -0.252 NA
HETATM    2  C3          0      -1.036  68.282  63.612  1.00  0.00     0.005 C 
HETATM    3  C4          0       0.433  68.595  63.330  1.00  0.00     0.043 C 
HETATM    4  C5          0      -1.340  68.429  65.098  1.00  0.00     0.006 C 
HETATM    5  C6          0       1.373  67.935  64.301  1.00  0.00    -0.006 A 
HETATM    6  C7          0      -0.510  67.437  65.908  1.00  0.00     0.060 C 
HETATM    7  C8          0       0.948  67.431  65.528  1.00  0.00     0.043 A 
HETATM    8  C9          0       2.738  67.866  64.018  1.00  0.00     0.046 A 
HETATM    9  C10         0       3.628  67.288  64.932  1.00  0.00     0.019 A 
HETATM   10  C11         0       3.104  66.791  66.140  1.00  0.00     0.069 A 
HETATM   11  C12         0       5.005  67.202  64.666  1.00  0.00     0.016 A 
HETATM   12  C13         0       3.987  66.215  67.050  1.00  0.00     0.032 A 
HETATM   13  C14         0       5.867  66.622  65.593  1.00  0.00     0.001 A 
HETATM   14  C15         0       5.356  66.128  66.787  1.00  0.00     0.002 A 
ENDROOT
BRANCH   8  15
HETATM   15  N2          0       3.219  68.395  62.792  1.00  0.00    -0.398 N 
HETATM   16  H26         0       4.209  68.417  62.596  1.00  0.00     0.156 HD
HETATM   17  H27         0       2.596  68.718  62.067  1.00  0.00     0.156 HD
ENDBRANCH   8  15
TORSDOF 1
ENDMDL
MODEL 9
REMARK VINA RESULT:      -7.0      2.428      5.368
REMARK  1 active torsions:
REMARK  status: ('A' for Active; 'I' for Inactive)
REMARK    1  A    between atoms: N2_2  and  C9_9 
ROOT
HETATM    1  N1          0       1.129  66.359  64.875  1.00  0.00    -0.252 NA
HETATM    2  C3          0       5.335  66.034  65.252  1.00  0.00     0.005 C 
HETATM    3  C4          0       4.702  67.349  65.706  1.00  0.00     0.043 C 
HETATM    4  C5          0       4.670  65.531  63.976  1.00  0.00     0.006 C 
HETATM    5  C6          0       3.199  67.324  65.669  1.00  0.00    -0.006 A 
HETATM    6  C7          0       3.191  65.252  64.227  1.00  0.00     0.060 C 
HETATM    7  C8          0       2.485  66.373  64.942  1.00  0.00     0.043 A 
HETATM    8  C9          0       2.465  68.313  66.323  1.00  0.00     0.046 A 
HETATM    9  C10         0       1.065  68.322  66.263  1.00  0.00     0.019 A 
HETATM   10  C11         0       0.430  67.312  65.518  1.00  0.00     0.069 A 
HETATM   11  C12         0       0.305  69.305  66.920  1.00  0.00     0.016 A 
HETATM   12  C13         0      -0.960  67.318  65.457  1.00  0.00     0.032 A 
HETATM   13  C14         0      -1.085  69.289  66.843  1.00  0.00     0.001 A 
HETATM   14  C15         0      -1.718  68.294  66.110  1.00  0.00     0.002 A 
ENDROOT
BRANCH   8  15
HETATM   15  N2          0       3.153  69.320  67.050  1.00  0.00    -0.398 N 
HETATM   16  H26         0       4.127  69.513  66.863  1.00  0.00     0.156 HD
HETATM   17  H27         0       2.689  69.900  67.732  1.00  0.00     0.156 HD
ENDBRANCH   8  15
TORSDOF 1
ENDMDL
