REMARK  1 active torsions:
REMARK  status: ('A' for Active; 'I' for Inactive)
REMARK    1  A    between atoms: N2_2  and  C9_9 
ROOT
HETATM    1  N1          0       0.018  -1.550  -0.029  1.00  0.00    -0.252 NA
HETATM    2  C3          0      -3.704   0.448  -0.339  1.00  0.00     0.005 C 
HETATM    3  C4          0      -2.494   1.300   0.042  1.00  0.00     0.043 C 
HETATM    4  C5          0      -3.651  -0.903   0.364  1.00  0.00     0.006 C 
HETATM    5  C6          0      -1.197   0.540  -0.009  1.00  0.00    -0.006 A 
HETATM    6  C7          0      -2.407  -1.675  -0.068  1.00  0.00     0.060 C 
HETATM    7  C8          0      -1.147  -0.852  -0.015  1.00  0.00     0.043 A 
HETATM    8  C9          0       0.018   1.225   0.014  1.00  0.00     0.046 A 
HETATM    9  C10         0       1.232   0.526   0.006  1.00  0.00     0.019 A 
HETATM   10  C11         0       1.184  -0.880  -0.017  1.00  0.00     0.069 A 
HETATM   11  C12         0       2.468   1.195   0.022  1.00  0.00     0.016 A 
HETATM   12  C13         0       2.389  -1.577  -0.026  1.00  0.00     0.032 A 
HETATM   13  C14         0       3.659   0.474   0.013  1.00  0.00     0.001 A 
HETATM   14  C15         0       3.619  -0.914  -0.011  1.00  0.00     0.002 A 
ENDROOT
BRANCH   8  15
HETATM   15  N2          0       0.013   2.644   0.052  1.00  0.00    -0.398 N 
HETATM   16  H26         0      -0.855   3.152   0.145  1.00  0.00     0.156 HD
HETATM   17  H27         0       0.865   3.183   0.036  1.00  0.00     0.156 HD
ENDBRANCH   8  15
TORSDOF 1
