REMARK  6 active torsions:
REMARK  status: ('A' for Active; 'I' for Inactive)
REMARK    1  A    between atoms: O2_2  and  C20_20 
REMARK    2  A    between atoms: O3_3  and  C21_21 
REMARK    3  A    between atoms: N4_4  and  C16_16 
REMARK    4  A    between atoms: C5_5  and  C6_6 
REMARK    5  A    between atoms: C6_6  and  C7_7 
REMARK    6  A    between atoms: C16_16  and  C19_19 
ROOT
HETATM    1  O1          0       2.281  -2.129   1.954  1.00  0.00    -0.292 OA
HETATM    2  C7          0       1.045  -0.570   0.527  1.00  0.00     0.065 A 
HETATM    3  C12         0       1.607   0.474  -0.465  1.00  0.00     0.052 A 
HETATM    4  C13         0       2.270  -1.202   1.164  1.00  0.00     0.164 A 
HETATM    5  C14         0       3.084   0.444  -0.229  1.00  0.00    -0.041 A 
HETATM    6  C15         0       3.466  -0.521   0.694  1.00  0.00     0.019 A 
HETATM    7  C17         0       4.048   1.238  -0.831  1.00  0.00     0.047 A 
HETATM    8  C18         0       4.782  -0.739   1.056  1.00  0.00     0.055 A 
HETATM    9  C20         0       5.388   1.043  -0.483  1.00  0.00     0.102 A 
HETATM   10  C21         0       5.753   0.061   0.453  1.00  0.00     0.102 A 
ENDROOT
BRANCH   2  11
HETATM   11  C6          0       0.179  -1.613  -0.153  1.00  0.00     0.017 C 
BRANCH  11  12
HETATM   12  C5          0      -1.065  -0.986  -0.774  1.00  0.00    -0.010 C 
HETATM   13  C8          0      -1.920  -2.043  -1.482  1.00  0.00     0.035 C 
HETATM   14  C10         0      -3.219  -1.438  -2.020  1.00  0.00     0.273 C 
HETATM   15  N4          0      -3.985  -0.789  -0.949  1.00  0.00     0.092 N 
HETATM   16  C11         0      -3.205   0.281  -0.312  1.00  0.00     0.273 C 
HETATM   17  C9          0      -1.906  -0.265   0.285  1.00  0.00     0.035 C 
BRANCH  15  18
HETATM   18  C16         0      -5.247  -0.262  -1.468  1.00  0.00     0.311 C 
BRANCH  18  19
HETATM   19  C19         0      -6.096   0.338  -0.379  1.00  0.00    -0.030 A 
HETATM   20  C22         0      -7.005  -0.462   0.298  1.00  0.00     0.009 A 
HETATM   21  C24         0      -7.791   0.094   1.307  1.00  0.00     0.001 A 
HETATM   22  C26         0      -7.660   1.445   1.629  1.00  0.00     0.000 A 
HETATM   23  C25         0      -6.743   2.240   0.942  1.00  0.00     0.001 A 
HETATM   24  C23         0      -5.957   1.684  -0.068  1.00  0.00     0.009 A 
ENDBRANCH  18  19
ENDBRANCH  15  18
ENDBRANCH  11  12
ENDBRANCH   2  11
BRANCH  10  25
HETATM   25  O3          0       7.064  -0.121   0.781  1.00  0.00    -0.353 OA
HETATM   26  C28         0       7.802  -1.058   0.000  1.00  0.00     0.210 C 
ENDBRANCH  10  25
BRANCH   9  27
HETATM   27  O2          0       6.345   1.819  -1.069  1.00  0.00    -0.353 OA
HETATM   28  C27         0       6.683   3.037  -0.410  1.00  0.00     0.210 C 
ENDBRANCH   9  27
TORSDOF 6
