REMARK  2 active torsions:
REMARK  status: ('A' for Active; 'I' for Inactive)
REMARK    1  A    between atoms: O2_2  and  C14_14 
REMARK    2  A    between atoms: O3_3  and  C17_17 
ROOT
HETATM    1  O1          0      -1.673   0.032   0.900  1.00  0.00    -0.341 OA
HETATM    2  N4          0       3.483  -0.239  -0.134  1.00  0.00     0.088 N 
HETATM    3  C5          0       0.368  -1.109   0.185  1.00  0.00     0.036 C 
HETATM    4  C6          0      -0.840  -1.124   1.176  1.00  0.00     0.148 C 
HETATM    5  C7          0       0.418   0.372  -0.031  1.00  0.00     0.001 A 
HETATM    6  C8          0       1.621  -1.681   0.879  1.00  0.00     0.051 C 
HETATM    7  C9          0      -1.681  -2.401   1.101  1.00  0.00     0.069 C 
HETATM    8  C10         0       0.060  -1.833  -1.112  1.00  0.00    -0.011 C 
HETATM    9  C11         0      -0.786   0.939   0.376  1.00  0.00     0.110 A 
HETATM   10  C12         0       2.944  -1.577   0.104  1.00  0.00     0.273 C 
HETATM   11  C13         0       1.422   1.158  -0.584  1.00  0.00    -0.020 A 
HETATM   12  C14         0      -2.138  -2.729  -0.323  1.00  0.00     0.143 C 
HETATM   13  C15         0       2.720   0.577  -1.080  1.00  0.00     0.311 C 
HETATM   14  C16         0      -1.060  -2.534  -1.340  1.00  0.00     0.002 C 
HETATM   15  C17         0      -1.055   2.286   0.238  1.00  0.00     0.102 A 
HETATM   16  C18         0       1.163   2.533  -0.721  1.00  0.00     0.012 A 
HETATM   17  C19         0      -0.061   3.090  -0.315  1.00  0.00     0.040 A 
HETATM   18  C20         0       3.869   0.471   1.079  1.00  0.00     0.310 C 
ENDROOT
BRANCH  15  19
HETATM   19  O3          0      -2.239   2.818   0.631  1.00  0.00    -0.353 OA
HETATM   20  C21         0      -3.291   2.861  -0.335  1.00  0.00     0.210 C 
ENDBRANCH  15  19
BRANCH  12  21
HETATM   21  O2          0      -3.243  -1.910  -0.694  1.00  0.00    -0.392 OA
HETATM   22  H39         0      -3.543  -2.194  -1.574  1.00  0.00     0.210 HD
ENDBRANCH  12  21
TORSDOF 2
