REMARK  1 active torsions:
REMARK  status: ('A' for Active; 'I' for Inactive)
REMARK    1  A    between atoms: N2_2  and  C4_4 
ROOT
HETATM    1  O1          0       4.564  -0.314  -0.712  1.00  0.00    -0.268 OA
HETATM    2  N3          0       2.303  -0.559  -1.107  1.00  0.00    -0.327 N 
HETATM    3  C4          0      -0.742  -0.004   1.115  1.00  0.00     0.211 C 
HETATM    4  C5          0      -1.480  -0.404  -1.251  1.00  0.00     0.045 C 
HETATM    5  C6          0      -1.664  -0.816   0.196  1.00  0.00    -0.033 C 
HETATM    6  C7          0      -1.243   1.474   1.036  1.00  0.00     0.084 C 
HETATM    7  C8          0       0.710  -0.080   0.587  1.00  0.00     0.007 A 
HETATM    8  C9          0      -0.067  -0.841  -1.687  1.00  0.00     0.070 C 
HETATM    9  C10         0       0.996  -0.483  -0.672  1.00  0.00     0.022 A 
HETATM   10  C11         0      -1.554   1.954  -0.372  1.00  0.00    -0.084 C 
HETATM   11  C12         0      -1.648   1.095  -1.405  1.00  0.00    -0.015 C 
HETATM   12  C13         0      -2.527  -1.781   0.549  1.00  0.00    -0.025 C 
HETATM   13  C14         0       1.816   0.308   1.450  1.00  0.00     0.017 A 
HETATM   14  C15         0      -1.748   3.430  -0.543  1.00  0.00     0.043 C 
HETATM   15  C16         0       3.090   0.239   1.045  1.00  0.00     0.075 A 
HETATM   16  C17         0       3.400  -0.236  -0.329  1.00  0.00     0.245 A 
HETATM   17  C18         0      -3.374  -2.531  -0.420  1.00  0.00     0.036 C 
HETATM   18  H29         0       2.465  -0.873  -2.059  1.00  0.00     0.169 HD
ENDROOT
BRANCH   3  19
HETATM   19  N2          0      -0.830  -0.451   2.519  1.00  0.00     0.097 N 
HETATM   20  H26         0      -0.298  -1.310   2.651  1.00  0.00     0.314 HD
HETATM   21  H25         0      -0.435   0.249   3.145  1.00  0.00     0.314 HD
ENDBRANCH   3  19
TORSDOF 1
